TITLE     = "CAVITY"
VARIABLES = "X"
"Y"
"U1"
"U2"
ZONE T="Slc: X=3"
 STRANDID=0, SOLUTIONTIME=0
 Nodes=134, Elements=133, ZONETYPE=FELineSeg
 DATAPACKING=POINT
 DT=(SINGLE SINGLE SINGLE SINGLE )
 3.000000000E+000 9.850088358E-001 4.419728369E-002 -1.791477011E-008
 3.000001431E+000 1.499999966E-002 4.438075796E-002 -1.525415350E-008
 3.000000000E+000 9.550264478E-001 1.288590431E-001 -1.171252322E-007
 3.000001431E+000 4.500000179E-002 1.290873140E-001 -1.153079126E-007
 3.000001431E+000 7.500000298E-002 2.083871663E-001 -2.948202109E-007
 3.000000000E+000 9.250441194E-001 2.081201375E-001 -2.952379532E-007
 3.000001431E+000 1.049999967E-001 2.822803259E-001 -5.305211630E-007
 3.000000000E+000 8.950617313E-001 2.819805741E-001 -5.296058134E-007
 3.000001431E+000 1.350000054E-001 3.507667482E-001 -8.036605550E-007
 3.000000000E+000 8.650793433E-001 3.504403532E-001 -8.014108630E-007
 3.000000000E+000 8.350970149E-001 4.134994745E-001 -1.094010827E-006
 3.000001431E+000 1.650000066E-001 4.138464928E-001 -1.097370728E-006
 3.000001431E+000 1.949999928E-001 4.715195298E-001 -1.397629944E-006
 3.000000000E+000 8.051146269E-001 4.711579680E-001 -1.393315642E-006
 3.000000000E+000 7.751322985E-001 5.234158039E-001 -1.687737267E-006
 3.000001431E+000 2.249999940E-001 5.237857699E-001 -1.692862270E-006
 3.000001431E+000 2.550031841E-001 5.706500411E-001 -1.973780627E-006
 3.000000000E+000 7.451499104E-001 5.702729821E-001 -1.967988510E-006
 3.000000000E+000 7.151612639E-001 6.117377281E-001 -2.226935976E-006
 3.000000000E+000 2.850290835E-001 6.121357083E-001 -2.232937732E-006
 3.000000000E+000 6.851313710E-001 6.478453279E-001 -2.458747304E-006
 3.000000000E+000 3.151477575E-001 6.483080387E-001 -2.464347517E-006
 3.000000000E+000 3.454594314E-001 6.792092323E-001 -2.663445912E-006
 3.000000000E+000 6.549835801E-001 6.786459088E-001 -2.660093060E-006
 3.000000000E+000 6.246318817E-001 7.041424513E-001 -2.827638127E-006
 3.000000000E+000 3.760463297E-001 7.047937512E-001 -2.826903938E-006
 3.000000000E+000 5.940205455E-001 7.242576480E-001 -2.958603091E-006
 3.000000000E+000 4.069327116E-001 7.249209285E-001 -2.955422360E-006
 3.000000000E+000 4.380700588E-001 7.394040823E-001 -3.049113502E-006
 3.000000000E+000 5.631290674E-001 7.388575673E-001 -3.051652584E-006
 3.000000000E+000 5.319855213E-001 7.477796078E-001 -3.108286364E-006
 3.000000000E+000 4.693579078E-001 7.480835319E-001 -3.106876648E-006
 3.000000000E+000 5.006910563E-001 7.508776188E-001 -3.126959200E-006
 3.000000000E+000 9.700176120E-001 8.718338609E-002 -5.643072498E-008
 3.000001431E+000 2.999999933E-002 8.707202226E-002 -5.944705705E-008
 3.000000000E+000 9.400352836E-001 1.691448092E-001 -1.981085376E-007
 3.000001431E+000 5.999999866E-002 1.690752208E-001 -2.008282820E-007
 3.000001431E+000 9.000000358E-002 2.456717193E-001 -4.095232384E-007
 3.000000000E+000 9.100528955E-001 2.457055897E-001 -4.067917985E-007
 3.000001431E+000 1.199999973E-001 3.168615103E-001 -6.648467661E-007
 3.000000000E+000 8.800705671E-001 3.168656826E-001 -6.620756494E-007
 3.000001431E+000 1.500000060E-001 3.826445937E-001 -9.489651802E-007
 3.000000000E+000 8.500881791E-001 3.826251328E-001 -9.461517720E-007
 3.000000000E+000 8.201057911E-001 4.429839253E-001 -1.243669885E-006
 3.000001431E+000 1.800000072E-001 4.430209994E-001 -1.246414740E-006
 3.000001431E+000 2.099999934E-001 4.979906380E-001 -1.544431370E-006
 3.000000000E+000 7.901234627E-001 4.979420900E-001 -1.541794063E-006
 3.000000000E+000 7.601410747E-001 5.474996567E-001 -1.830120596E-006
 3.000001431E+000 2.400007844E-001 5.475547314E-001 -1.832603061E-006
 3.000000477E+000 2.663909197E-001 5.866409540E-001 -2.071560175E-006
 3.000000000E+000 2.700108886E-001 5.917242169E-001 -2.102643293E-006
 3.000000000E+000 7.301579118E-001 5.916576385E-001 -2.100431630E-006
 3.000000000E+000 7.001591325E-001 6.304327846E-001 -2.346708698E-006
 3.000000000E+000 3.000714183E-001 6.305423379E-001 -2.347738700E-006
 3.000000000E+000 6.700879335E-001 6.638735533E-001 -2.562319878E-006
 3.000000000E+000 3.302719891E-001 6.640729308E-001 -2.563057024E-006
 3.000000000E+000 3.607142866E-001 6.923259497E-001 -2.743517825E-006
 3.000000000E+000 6.398517489E-001 6.920163035E-001 -2.748616907E-006
 3.000000000E+000 6.093755960E-001 7.148180604E-001 -2.897121021E-006
 3.000000000E+000 3.914529681E-001 7.152074575E-001 -2.889782763E-006
 3.000000000E+000 5.786235929E-001 7.321624756E-001 -3.009148486E-006
 3.000000000E+000 4.224732816E-001 7.325507998E-001 -3.001191544E-006
 3.000000000E+000 4.537019432E-001 7.441809773E-001 -3.077810334E-006
 3.000000000E+000 5.475935340E-001 7.438979745E-001 -3.080143188E-006
 3.000000000E+000 5.163507462E-001 7.498677969E-001 -3.120253268E-006
 3.000000000E+000 4.850239456E-001 7.499693036E-001 -3.116797643E-006
 3.000000000E+000 1.000000000E+000 0.000000000E+000 0.000000000E+000
 3.000000000E+000 9.920634627E-001 2.348277159E-002 -7.911161504E-009
 3.000000000E+000 9.779542089E-001 6.459410489E-002 -3.341310517E-008
 3.000000000E+000 9.620810747E-001 1.094152629E-001 -8.553232078E-008
 3.000000000E+000 0.000000000E+000 0.000000000E+000 0.000000000E+000
 3.000001431E+000 1.499850024E-002 4.437635466E-002 -1.525211246E-008
 3.000001431E+000 1.500149909E-002 4.438509420E-002 -1.525732429E-008
 3.000001431E+000 4.499850050E-002 1.290831715E-001 -1.153014253E-007
 3.000000000E+000 9.479718208E-001 1.479851305E-001 -1.534656064E-007
 3.000000000E+000 9.320987463E-001 1.899470985E-001 -2.471967946E-007
 3.000001431E+000 4.500150308E-002 1.290913820E-001 -1.153153804E-007
 3.000001431E+000 7.499850541E-002 2.083832920E-001 -2.948102917E-007
 3.000001431E+000 7.500150055E-002 2.083909512E-001 -2.948308691E-007
 3.000001431E+000 1.049984992E-001 2.822767198E-001 -5.305088280E-007
 3.000000000E+000 9.179894924E-001 2.259754837E-001 -3.467389149E-007
 3.000000000E+000 9.021163583E-001 2.650782764E-001 -4.701612966E-007
 3.000001431E+000 1.050014943E-001 2.822838426E-001 -5.305340665E-007
 3.000001431E+000 1.349985003E-001 3.507634103E-001 -8.036466284E-007
 3.000000000E+000 8.880071044E-001 2.985652089E-001 -5.915612178E-007
 3.000000000E+000 8.721339703E-001 3.348087966E-001 -7.349410680E-007
 3.000001431E+000 1.350015104E-001 3.507699966E-001 -8.036748227E-007
 3.000001431E+000 1.649985015E-001 4.138434231E-001 -1.097355948E-006
 3.000000000E+000 8.580247164E-001 3.657542169E-001 -8.696388250E-007
 3.000000000E+000 8.421516418E-001 3.991386294E-001 -1.024286234E-006
 3.000000000E+000 8.280423880E-001 4.275425971E-001 -1.164961873E-006
 3.000000000E+000 8.121692538E-001 4.580678642E-001 -1.323483389E-006
 3.000001431E+000 1.650015116E-001 4.138494730E-001 -1.097385621E-006
 3.000001431E+000 1.949984878E-001 4.715167582E-001 -1.397615051E-006
 3.000001431E+000 1.950014979E-001 4.715222418E-001 -1.397644951E-006
 3.000001431E+000 2.249984890E-001 5.237832665E-001 -1.692847832E-006
 3.000000000E+000 7.980599999E-001 4.839303792E-001 -1.464050911E-006
 3.000000000E+000 7.821869254E-001 5.115964413E-001 -1.620332682E-006
 3.000000000E+000 7.680776715E-001 5.349174738E-001 -1.755901849E-006
 3.000000000E+000 7.522045374E-001 5.597243905E-001 -1.904997589E-006
 3.000001431E+000 2.250014991E-001 5.237882137E-001 -1.692877163E-006
 3.000001431E+000 2.550016940E-001 5.706478357E-001 -1.973768349E-006
 3.000001431E+000 2.550046742E-001 5.706522465E-001 -1.973791086E-006
 3.000000000E+000 2.850274146E-001 6.121335626E-001 -2.232930910E-006
 3.000000000E+000 7.380952835E-001 5.805039406E-001 -2.031748636E-006
 3.000000000E+000 7.222172022E-001 6.024582386E-001 -2.169801974E-006
 3.000000000E+000 7.081083059E-001 6.206954718E-001 -2.285062465E-006
 3.000000000E+000 6.921859980E-001 6.398397088E-001 -2.409278977E-006
 3.000000000E+000 2.850307524E-001 6.121378541E-001 -2.232940915E-006
 3.000000000E+000 3.151345849E-001 6.482930779E-001 -2.464157205E-006
 3.000000000E+000 6.780998111E-001 6.555072069E-001 -2.508673106E-006
 3.000000000E+000 6.619933844E-001 6.719592810E-001 -2.617393648E-006
 3.000000000E+000 3.151609600E-001 6.483224034E-001 -2.464546469E-006
 3.000000000E+000 3.454010189E-001 6.791537404E-001 -2.663525038E-006
 3.000000000E+000 3.455181122E-001 6.792623997E-001 -2.663510486E-006
 3.000000000E+000 3.758528829E-001 7.046452165E-001 -2.825522870E-006
 3.000000000E+000 6.480555534E-001 6.849400401E-001 -2.703399105E-006
 3.000000000E+000 6.314518452E-001 6.988779902E-001 -2.795985665E-006
 3.000000000E+000 6.179961562E-001 7.089609504E-001 -2.860436780E-006
 3.000000000E+000 6.003803015E-001 7.205151320E-001 -2.936764531E-006
 3.000000000E+000 3.762423396E-001 7.049351335E-001 -2.827973503E-006
 3.000000000E+000 4.064230025E-001 7.246242762E-001 -2.953615649E-006
 3.000000000E+000 5.879610181E-001 7.275436521E-001 -2.981362286E-006
 3.000000000E+000 5.686782002E-001 7.366194725E-001 -3.040542424E-006
 3.000000000E+000 4.074570537E-001 7.252017260E-001 -2.957430752E-006
 3.000000000E+000 4.369750023E-001 7.389715314E-001 -3.046769052E-006
 3.000000000E+000 4.392197728E-001 7.398042083E-001 -3.052263992E-006
 3.000000000E+000 4.674019516E-001 7.476789355E-001 -3.105339374E-006
 3.000000000E+000 5.579454899E-001 7.407066822E-001 -3.062328005E-006
 3.000000000E+000 5.364186168E-001 7.468197942E-001 -3.101785296E-006
 3.000000000E+000 5.278831720E-001 7.484752536E-001 -3.115267418E-006
 3.000000000E+000 5.039077401E-001 7.507858872E-001 -3.128687922E-006
 3.000000000E+000 4.714468420E-001 7.484173179E-001 -3.109403906E-006
 3.000000000E+000 4.976987243E-001 7.508221269E-001 -3.126661341E-006